# vtk DataFile Version 3.0
Test with data
ASCII
DATASET POLYDATA
POINTS 8 float
0 0 0
1 0 0
1 1 0
0 1 0
0 0 1
1 0 1
1 1 1
0 1 1
POLYGONS 6 30
4 0 1 2 3
4 4 7 6 5
4 0 4 5 1
4 2 6 7 3
4 0 3 7 4
4 1 5 6 2
POINT_DATA 8
SCALARS distance float 1
LOOKUP_TABLE default
0
1
1.41421
1
1
1.41421
1.73205
1.41421
CELL_DATA 6
SCALARS face_id float 1
LOOKUP_TABLE default
0
1
2
3
4
5
